data_global
_chemical_name_mineral 'Gallium'
loop_
_publ_author_name
'Wyckoff R W G'
_journal_name_full 'Crystal Structures'
_journal_volume 1 
_journal_year 1963
_journal_page_first 7
_journal_page_last 83
_publ_section_title
;
 Second edition. Interscience Publishers, New York, New York
;
_database_code_amcsd 0011240
_chemical_formula_sum 'Ga'
_chemical_formula_sum ''
_cell_length_a 4.5107
_cell_length_b 4.5167
_cell_length_c 7.6448
_cell_angle_alpha 90
_cell_angle_beta 90
_cell_angle_gamma 90
_cell_volume 155.751
_exptl_crystal_density_diffrn      5.947
_symmetry_space_group_name_H-M 'B m a b'
loop_
_space_group_symop_operation_xyz
  'x,y,z'
  '1/2+x,y,1/2+z'
  'x,1/2+y,1/2-z'
  '1/2+x,1/2+y,-z'
  '-x,1/2-y,1/2+z'
  '1/2-x,1/2-y,+z'
  '-x,y,z'
  '1/2-x,y,1/2+z'
  'x,-y,-z'
  '1/2+x,-y,1/2-z'
  'x,1/2-y,1/2+z'
  '1/2+x,1/2-y,+z'
  '-x,1/2+y,1/2-z'
  '1/2-x,1/2+y,-z'
  '-x,-y,-z'
  '1/2-x,-y,1/2-z'
loop_
_atom_site_label
_atom_site_fract_x
_atom_site_fract_y
_atom_site_fract_z
Ga   0.00000   0.07850   0.15250
