data_global
_amcsd_formula_title 'B Fe2'
loop_
_publ_author_name
'Bjurstroem T'
_journal_name_full 'Arkiv for Kemi, Mineralogi och Geologi'
_journal_volume A11 
_journal_year 1933
_journal_page_first 1
_journal_page_last 12
_publ_section_title
;
 Roentgenanalyse der Systeme Eisen-Bor, Kobalt-Bor und Nickel-Bor
 _cod_database_code 1010474
;
_database_code_amcsd 0017390
_chemical_formula_sum 'Fe2 B'
_chemical_formula_sum ''
_cell_length_a 5.099
_cell_length_b 5.099
_cell_length_c 4.24
_cell_angle_alpha 90
_cell_angle_beta 90
_cell_angle_gamma 90
_cell_volume 110.239
_exptl_crystal_density_diffrn      7.381
_symmetry_space_group_name_H-M 'I -4 2 m'
loop_
_space_group_symop_operation_xyz
  'x,y,z'
  '1/2+x,1/2+y,1/2+z'
  '-y,-x,z'
  '1/2-y,1/2-x,1/2+z'
  'y,-x,-z'
  '1/2+y,1/2-x,1/2-z'
  '-x,y,-z'
  '1/2-x,1/2+y,1/2-z'
  '-x,-y,z'
  '1/2-x,1/2-y,1/2+z'
  'y,x,z'
  '1/2+y,1/2+x,1/2+z'
  '-y,x,-z'
  '1/2-y,1/2+x,1/2-z'
  'x,-y,-z'
  '1/2+x,1/2-y,1/2-z'
loop_
_atom_site_label
_atom_site_fract_x
_atom_site_fract_y
_atom_site_fract_z
Fe1   0.16700   0.16700   0.25000
B1   0.50000   0.00000   0.00000
