data_global
_chemical_name_mineral 'Gallium'
loop_
_publ_author_name
'Bosio L'
_journal_name_full 'Journal of Chemical Physics'
_journal_volume 68 
_journal_year 1978
_journal_page_first 1221
_journal_page_last 1223
_publ_section_title
;
 Crystal structures of Ga(II) and Ga(III)
 Loclailty: synthetic
 Sample: at P = 2.6 GPa, T = 313 K
 Note: structure known as Ga(II) phase
;
_database_code_amcsd 0013007
_chemical_formula_sum 'Ga'
_chemical_formula_sum ''
_cell_length_a 5.951
_cell_length_b 5.951
_cell_length_c 5.951
_cell_angle_alpha 90
_cell_angle_beta 90
_cell_angle_gamma 90
_cell_volume 210.751
_exptl_crystal_density_diffrn      6.592
_symmetry_space_group_name_H-M 'I -4 3 d'
loop_
_space_group_symop_operation_xyz
  'x,y,z'
  '1/2+x,1/2+y,1/2+z'
  '1/2-z,x,-y'
  '-z,1/2+x,1/2-y'
  '1/2-y,z,-x'
  '-y,1/2+z,1/2-x'
  '1/2-x,y,-z'
  '-x,1/2+y,1/2-z'
  '1/4+x,3/4-z,1/4-y'
  '3/4+x,1/4-z,3/4-y'
  '1/4+z,3/4-y,1/4-x'
  '3/4+z,1/4-y,3/4-x'
  '1/4+y,3/4-x,1/4-z'
  '3/4+y,1/4-x,3/4-z'
  '1/4+x,1/4+z,1/4+y'
  '3/4+x,3/4+z,3/4+y'
  '1/4+z,1/4+y,1/4+x'
  '3/4+z,3/4+y,3/4+x'
  '1/4+y,1/4+x,1/4+z'
  '3/4+y,3/4+x,3/4+z'
  '-z,1/2-x,y'
  '1/2-z,-x,1/2+y'
  '-y,1/2-z,x'
  '1/2-y,-z,1/2+x'
  '-x,1/2-y,z'
  '1/2-x,-y,1/2+z'
  '1/2+z,1/2-x,-y'
  '+z,-x,1/2-y'
  '1/2+y,1/2-z,-x'
  '+y,-z,1/2-x'
  '1/2+x,1/2-y,-z'
  '+x,-y,1/2-z'
  '3/4-x,3/4+z,1/4-y'
  '1/4-x,1/4+z,3/4-y'
  '3/4-z,3/4+y,1/4-x'
  '1/4-z,1/4+y,3/4-x'
  '3/4-y,3/4+x,1/4-z'
  '1/4-y,1/4+x,3/4-z'
  '3/4-x,1/4-z,1/4+y'
  '1/4-x,3/4-z,3/4+y'
  '3/4-z,1/4-y,1/4+x'
  '1/4-z,3/4-y,3/4+x'
  '3/4-y,1/4-x,1/4+z'
  '1/4-y,3/4-x,3/4+z'
  'z,x,y'
  '1/2+z,1/2+x,1/2+y'
  'y,z,x'
  '1/2+y,1/2+z,1/2+x'
loop_
_atom_site_label
_atom_site_fract_x
_atom_site_fract_y
_atom_site_fract_z
Ga   0.37500   0.00000   0.25000
