data_global
_amcsd_formula_title 'Bi2 O3'
loop_
_publ_author_name
'Sillen L'
_journal_name_full 'Arkiv for Kemi, Mineralogi och Geologi'
_journal_volume A12 
_journal_year 1938
_journal_page_first 1
_journal_page_last 15
_publ_section_title
;
 X-Ray Studies on Bismuth Trioxide
 _cod_database_code 1010313
;
_database_code_amcsd 0017239
_chemical_formula_sum 'Bi2 O3'
_chemical_formula_sum ''
_cell_length_a 10.08
_cell_length_b 10.08
_cell_length_c 10.08
_cell_angle_alpha 90
_cell_angle_beta 90
_cell_angle_gamma 90
_cell_volume 1024.193
_exptl_crystal_density_diffrn      9.066
_symmetry_space_group_name_H-M 'I 2 3'
loop_
_space_group_symop_operation_xyz
  'x,y,z'
  '1/2+x,1/2+y,1/2+z'
  '-z,-x,y'
  '1/2-z,1/2-x,1/2+y'
  '-z,x,-y'
  '1/2-z,1/2+x,1/2-y'
  'z,-x,-y'
  '1/2+z,1/2-x,1/2-y'
  'z,x,y'
  '1/2+z,1/2+x,1/2+y'
  'y,-z,-x'
  '1/2+y,1/2-z,1/2-x'
  '-y,-z,x'
  '1/2-y,1/2-z,1/2+x'
  '-y,z,-x'
  '1/2-y,1/2+z,1/2-x'
  'y,z,x'
  '1/2+y,1/2+z,1/2+x'
  '-x,y,-z'
  '1/2-x,1/2+y,1/2-z'
  'x,-y,-z'
  '1/2+x,1/2-y,1/2-z'
  '-x,-y,z'
  '1/2-x,1/2-y,1/2+z'
loop_
_atom_site_label
_atom_site_fract_x
_atom_site_fract_y
_atom_site_fract_z
Bi1   0.32000   0.18000   0.02000
O1   0.36000   0.08000   0.21000
O2   0.19000   0.00000   0.00000
