data_global
_chemical_name_mineral 'Anyuiite'
loop_
_publ_author_name
'Wyckoff R W G'
_journal_name_full 'Crystal Structures'
_journal_volume 1 
_journal_year 1963
_journal_page_first 239
_journal_page_last 444
_publ_section_title
;
 Second edition. Interscience Publishers, New York, New York
;
_database_code_amcsd 0011802
_chemical_formula_sum 'Au Pb2'
_chemical_formula_sum ''
_cell_length_a 7.31
_cell_length_b 7.31
_cell_length_c 5.644
_cell_angle_alpha 90
_cell_angle_beta 90
_cell_angle_gamma 90
_cell_volume 301.593
_exptl_crystal_density_diffrn     13.464
_symmetry_space_group_name_H-M 'I 4/m c m'
loop_
_space_group_symop_operation_xyz
  'x,y,z'
  '1/2+x,1/2+y,1/2+z'
  '-y,-x,1/2+z'
  '1/2-y,1/2-x,+z'
  'y,x,1/2-z'
  '1/2+y,1/2+x,-z'
  'y,-x,-z'
  '1/2+y,1/2-x,1/2-z'
  '-y,x,z'
  '1/2-y,1/2+x,1/2+z'
  'x,-y,1/2+z'
  '1/2+x,1/2-y,+z'
  '-x,y,1/2-z'
  '1/2-x,1/2+y,-z'
  'x,y,-z'
  '1/2+x,1/2+y,1/2-z'
  '-x,-y,z'
  '1/2-x,1/2-y,1/2+z'
  'y,x,1/2+z'
  '1/2+y,1/2+x,+z'
  '-y,-x,1/2-z'
  '1/2-y,1/2-x,-z'
  '-y,x,-z'
  '1/2-y,1/2+x,1/2-z'
  'y,-x,z'
  '1/2+y,1/2-x,1/2+z'
  '-x,y,1/2+z'
  '1/2-x,1/2+y,+z'
  'x,-y,1/2-z'
  '1/2+x,1/2-y,-z'
  '-x,-y,-z'
  '1/2-x,1/2-y,1/2-z'
loop_
_atom_site_label
_atom_site_fract_x
_atom_site_fract_y
_atom_site_fract_z
Au   0.00000   0.00000   0.25000
Pb   0.16700   0.66700   0.00000
