data_global
_chemical_name_mineral 'Tin'
loop_
_publ_author_name
'Wyckoff R W G'
_journal_name_full 'Crystal Structures'
_journal_volume 1 
_journal_year 1963
_journal_page_first 7
_journal_page_last 83
_publ_section_title
;
 Second edition. Interscience Publishers, New York, New York
 Sample known as white tin
;
_database_code_amcsd 0011248
_chemical_formula_sum 'Sn'
_chemical_formula_sum ''
_cell_length_a 5.8197
_cell_length_b 5.8197
_cell_length_c 3.17488
_cell_angle_alpha 90
_cell_angle_beta 90
_cell_angle_gamma 90
_cell_volume 107.530
_exptl_crystal_density_diffrn      7.333
_symmetry_space_group_name_H-M 'I 41/a m d'
loop_
_space_group_symop_operation_xyz
  'x,y,z'
  '1/2+x,1/2+y,1/2+z'
  '-y,1/2-x,1/4+z'
  '1/2-y,-x,3/4+z'
  '1/2+y,1/2+x,1/2-z'
  '+y,+x,-z'
  '1/2+y,1/2-x,1/2-z'
  '+y,-x,-z'
  '-y,1/2+x,1/4+z'
  '1/2-y,+x,3/4+z'
  '1/2+x,1/2-y,1/2+z'
  '+x,-y,+z'
  '1/2-x,y,3/4-z'
  '-x,1/2+y,1/4-z'
  '1/2+x,y,3/4-z'
  '+x,1/2+y,1/4-z'
  '1/2-x,1/2-y,1/2+z'
  '-x,-y,+z'
  '1/2+y,x,3/4+z'
  '+y,1/2+x,1/4+z'
  '-y,-x,-z'
  '1/2-y,1/2-x,1/2-z'
  '-y,x,-z'
  '1/2-y,1/2+x,1/2-z'
  '1/2+y,-x,3/4+z'
  '+y,1/2-x,1/4+z'
  '-x,y,z'
  '1/2-x,1/2+y,1/2+z'
  'x,1/2-y,1/4-z'
  '1/2+x,-y,3/4-z'
  '-x,1/2-y,1/4-z'
  '1/2-x,-y,3/4-z'
loop_
_atom_site_label
_atom_site_fract_x
_atom_site_fract_y
_atom_site_fract_z
Sn   0.00000   0.00000   0.00000
