data_global
_chemical_name_mineral 'Calderite'
loop_
_publ_author_name
'Ottonello G'
'Borketa M'
'Sciuto P F'
_journal_name_full 'American Mineralogist'
_journal_volume 81 
_journal_year 1996
_journal_page_first 429
_journal_page_last 447
_publ_section_title
;
 Parameterization of energy and interactions in garnets: End-member properties
;
_database_code_amcsd 0018998
_chemical_compound_source 'Calculated structure'
_chemical_formula_sum 'Mn3 Fe2 Si3 O12'
_chemical_formula_sum ''
_cell_length_a 11.8288
_cell_length_b 11.8288
_cell_length_c 11.8288
_cell_angle_alpha 90
_cell_angle_beta 90
_cell_angle_gamma 90
_cell_volume 1655.092
_exptl_crystal_density_diffrn      4.437
_symmetry_space_group_name_H-M 'I a 3 d'
loop_
_space_group_symop_operation_xyz
  'x,y,z'
  '1/2+x,1/2+y,1/2+z'
  'z,1/2-x,1/2+y'
  '1/2+z,-x,+y'
  '-y,1/2+z,1/2-x'
  '1/2-y,+z,-x'
  'x,1/2-y,1/2+z'
  '1/2+x,-y,+z'
  '-z,1/2+x,1/2-y'
  '1/2-z,+x,-y'
  'y,1/2-z,1/2+x'
  '1/2+y,-z,+x'
  '-x,1/2+y,1/2-z'
  '1/2-x,+y,-z'
  '3/4+x,1/4-z,3/4-y'
  '1/4+x,3/4-z,1/4-y'
  '3/4-z,1/4+y,3/4+x'
  '1/4-z,3/4+y,1/4+x'
  '3/4+y,1/4-x,3/4-z'
  '1/4+y,3/4-x,1/4-z'
  '3/4-x,1/4+z,3/4+y'
  '1/4-x,3/4+z,1/4+y'
  '3/4+z,1/4-y,3/4-x'
  '1/4+z,3/4-y,1/4-x'
  '3/4-y,1/4+x,3/4+z'
  '1/4-y,3/4+x,1/4+z'
  '1/4+x,1/4+z,1/4+y'
  '3/4+x,3/4+z,3/4+y'
  '1/4-z,1/4-y,1/4-x'
  '3/4-z,3/4-y,3/4-x'
  '1/4+y,1/4+x,1/4+z'
  '3/4+y,3/4+x,3/4+z'
  '1/4-x,1/4-z,1/4-y'
  '3/4-x,3/4-z,3/4-y'
  '1/4+z,1/4+y,1/4+x'
  '3/4+z,3/4+y,3/4+x'
  '1/4-y,1/4-x,1/4-z'
  '3/4-y,3/4-x,3/4-z'
  '1/2+z,x,1/2-y'
  '+z,1/2+x,-y'
  '1/2-y,-z,1/2+x'
  '-y,1/2-z,+x'
  '1/2+x,y,1/2-z'
  '+x,1/2+y,-z'
  '1/2-z,-x,1/2+y'
  '-z,1/2-x,+y'
  '1/2+y,z,1/2-x'
  '+y,1/2+z,-x'
  '1/2-x,-y,1/2+z'
  '-x,1/2-y,+z'
  '1/2-z,1/2+x,y'
  '-z,+x,1/2+y'
  '1/2+y,1/2-z,-x'
  '+y,-z,1/2-x'
  '1/2-x,1/2+y,z'
  '-x,+y,1/2+z'
  '1/2+z,1/2-x,-y'
  '+z,-x,1/2-y'
  '1/2-y,1/2+z,x'
  '-y,+z,1/2+x'
  '1/2+x,1/2-y,-z'
  '+x,-y,1/2-z'
  '3/4-x,3/4+z,1/4-y'
  '1/4-x,1/4+z,3/4-y'
  '3/4+z,3/4-y,1/4+x'
  '1/4+z,1/4-y,3/4+x'
  '3/4-y,3/4+x,1/4-z'
  '1/4-y,1/4+x,3/4-z'
  '3/4+x,3/4-z,1/4+y'
  '1/4+x,1/4-z,3/4+y'
  '3/4-z,3/4+y,1/4-x'
  '1/4-z,1/4+y,3/4-x'
  '3/4+y,3/4-x,1/4+z'
  '1/4+y,1/4-x,3/4+z'
  '1/4-x,3/4-z,3/4+y'
  '3/4-x,1/4-z,1/4+y'
  '1/4+z,3/4+y,3/4-x'
  '3/4+z,1/4+y,1/4-x'
  '1/4-y,3/4-x,3/4+z'
  '3/4-y,1/4-x,1/4+z'
  '1/4+x,3/4+z,3/4-y'
  '3/4+x,1/4+z,1/4-y'
  '1/4-z,3/4-y,3/4+x'
  '3/4-z,1/4-y,1/4+x'
  '1/4+y,3/4+x,3/4-z'
  '3/4+y,1/4+x,1/4-z'
  '-z,-x,-y'
  '1/2-z,1/2-x,1/2-y'
  'y,z,x'
  '1/2+y,1/2+z,1/2+x'
  '-x,-y,-z'
  '1/2-x,1/2-y,1/2-z'
  'z,x,y'
  '1/2+z,1/2+x,1/2+y'
  '-y,-z,-x'
  '1/2-y,1/2-z,1/2-x'
loop_
_atom_site_label
_atom_site_fract_x
_atom_site_fract_y
_atom_site_fract_z
Mn   0.12500   0.00000   0.25000
Fe   0.00000   0.00000   0.00000
Si   0.37500   0.00000   0.25000
O   0.03672   0.05137   0.65715
