data_global
_amcsd_formula_title 'Ag N O2'
loop_
_publ_author_name
'Ketelaar J'
_journal_name_full 'Zeitschrift fur Kristallographie'
_journal_volume 95 
_journal_year 1936
_journal_page_first 383
_journal_page_last 393
_publ_section_title
;
 Die Kristallstruktur des Silbernitrits.
 _cod_database_code 1010262
;
_database_code_amcsd 0017189
_chemical_formula_sum 'Ag N O2'
_chemical_formula_sum ''
_cell_length_a 3.505
_cell_length_b 6.14
_cell_length_c 5.16
_cell_angle_alpha 90
_cell_angle_beta 90
_cell_angle_gamma 90
_cell_volume 111.047
_exptl_crystal_density_diffrn      4.602
_symmetry_space_group_name_H-M 'I m m 2'
loop_
_space_group_symop_operation_xyz
  'x,y,z'
  '1/2+x,1/2+y,1/2+z'
  'x,-y,z'
  '1/2+x,1/2-y,1/2+z'
  '-x,y,z'
  '1/2-x,1/2+y,1/2+z'
  '-x,-y,z'
  '1/2-x,1/2-y,1/2+z'
loop_
_atom_site_label
_atom_site_fract_x
_atom_site_fract_y
_atom_site_fract_z
Ag1   0.00000   0.00000   0.00000
N1   0.00000   0.00000   0.40000
O1   0.00000   0.16700   0.50000
