data_global
_amcsd_formula_title 'Ag3 O4 P'
loop_
_publ_author_name
'Wyckoff R'
_journal_name_full 'Zeitschrift fur Kristallographie'
_journal_volume 62 
_journal_year 1925
_journal_page_first 529
_journal_page_last 539
_publ_section_title
;
 Die Kristallstruktur von Silberphosphat und Silberarsenat (Ag3 XO4).
 _cod_database_code 1010493
;
_database_code_amcsd 0017409
_chemical_formula_sum 'Ag3 P'
_chemical_formula_sum ''
_cell_length_a 5.996
_cell_length_b 5.996
_cell_length_c 5.996
_cell_angle_alpha 90
_cell_angle_beta 90
_cell_angle_gamma 90
_cell_volume 215.568
_exptl_crystal_density_diffrn      5.463
_symmetry_space_group_name_H-M 'P -4 3 n'
loop_
_space_group_symop_operation_xyz
  'x,y,z'
  '-z,x,-y'
  '-y,z,-x'
  '-x,y,-z'
  '1/2+x,1/2-z,1/2-y'
  '1/2+z,1/2-y,1/2-x'
  '1/2+y,1/2-x,1/2-z'
  '1/2+x,1/2+z,1/2+y'
  '1/2+z,1/2+y,1/2+x'
  '1/2+y,1/2+x,1/2+z'
  '-z,-x,y'
  '-y,-z,x'
  '-x,-y,z'
  'z,-x,-y'
  'y,-z,-x'
  'x,-y,-z'
  '1/2-x,1/2+z,1/2-y'
  '1/2-z,1/2+y,1/2-x'
  '1/2-y,1/2+x,1/2-z'
  '1/2-x,1/2-z,1/2+y'
  '1/2-z,1/2-y,1/2+x'
  '1/2-y,1/2-x,1/2+z'
  'z,x,y'
  'y,z,x'
loop_
_atom_site_label
_atom_site_fract_x
_atom_site_fract_y
_atom_site_fract_z
Ag1   0.00000   0.50000   0.25000
P1   0.00000   0.00000   0.00000
