data_global
_chemical_name_mineral 'Palladinite'
loop_
_publ_author_name
'Waser J'
'Levy H A'
'Peterson S W'
_journal_name_full 'Acta Crystallographica'
_journal_volume 6 
_journal_year 1953
_journal_page_first 661
_journal_page_last 663
_publ_section_title
;
 The structure of PdO
;
_database_code_amcsd 0009157
_chemical_compound_source 'Synthetic'
_chemical_formula_sum 'Pd O'
_chemical_formula_sum ''
_cell_length_a 3.03
_cell_length_b 3.03
_cell_length_c 5.33
_cell_angle_alpha 90
_cell_angle_beta 90
_cell_angle_gamma 90
_cell_volume 48.934
_exptl_crystal_density_diffrn      8.308
_symmetry_space_group_name_H-M 'P 42/m m c'
loop_
_space_group_symop_operation_xyz
  'x,y,z'
  '1/2-y,1/2-x,1/2+z'
  '1/2+y,1/2+x,1/2-z'
  '1/2+y,1/2-x,1/2-z'
  '1/2-y,1/2+x,1/2+z'
  'x,-y,z'
  '-x,y,-z'
  'x,y,-z'
  '-x,-y,z'
  '1/2+y,1/2+x,1/2+z'
  '1/2-y,1/2-x,1/2-z'
  '1/2-y,1/2+x,1/2-z'
  '1/2+y,1/2-x,1/2+z'
  '-x,y,z'
  'x,-y,-z'
  '-x,-y,-z'
loop_
_atom_site_label
_atom_site_fract_x
_atom_site_fract_y
_atom_site_fract_z
Pd   0.00000   0.00000   0.00000
O   0.50000   0.00000   0.25000
