data_global
_amcsd_formula_title 'As2 Mg3'
loop_
_publ_author_name
'Natta G'
'Passerini L'
_journal_name_full 'Gazzetta Chimica Italiana'
_journal_volume 58 
_journal_year 1928
_journal_page_first 541
_journal_page_last 550
_publ_section_title
;
 Sugli arseniuri di magnesio e di zinco
 _cod_database_code 1010124
;
_database_code_amcsd 0017054
_chemical_formula_sum 'Mg3 As2'
_chemical_formula_sum ''
_cell_length_a 6.1
_cell_length_b 6.1
_cell_length_c 6.1
_cell_angle_alpha 90
_cell_angle_beta 90
_cell_angle_gamma 90
_cell_volume 226.981
_exptl_crystal_density_diffrn      3.259
_symmetry_space_group_name_H-M 'P 42 3 2'
loop_
_space_group_symop_operation_xyz
  'x,y,z'
  '-z,x,-y'
  '-y,z,-x'
  '-x,y,-z'
  '1/2-x,1/2+z,1/2+y'
  '1/2-z,1/2+y,1/2+x'
  '1/2-y,1/2+x,1/2+z'
  '1/2-x,1/2-z,1/2-y'
  '1/2-z,1/2-y,1/2-x'
  '1/2-y,1/2-x,1/2-z'
  '-z,-x,y'
  '-y,-z,x'
  '-x,-y,z'
  'z,-x,-y'
  'y,-z,-x'
  'x,-y,-z'
  '1/2+x,1/2-z,1/2+y'
  '1/2+z,1/2-y,1/2+x'
  '1/2+y,1/2-x,1/2+z'
  '1/2+x,1/2+z,1/2-y'
  '1/2+z,1/2+y,1/2-x'
  '1/2+y,1/2+x,1/2-z'
  'z,x,y'
  'y,z,x'
loop_
_atom_site_label
_atom_site_fract_x
_atom_site_fract_y
_atom_site_fract_z
Mg1   0.00000   0.50000   0.50000
As1   0.25000   0.25000   0.25000
