data_global
_chemical_name_mineral 'Eucryptite'
loop_
_publ_author_name
'Pillars W W'
'Peacor D R'
_journal_name_full 'American Mineralogist'
_journal_volume 58 
_journal_year 1973
_journal_page_first 681
_journal_page_last 690
_publ_section_title
;
 The crystal structure of beta eucryptite as a function of temperature
 T = 484 C
;
_database_code_amcsd 0000380
_chemical_formula_sum 'Si Al Li O4'
_chemical_formula_sum ''
_cell_length_a 5.251
_cell_length_b 5.251
_cell_length_c 11.192
_cell_angle_alpha 90
_cell_angle_beta 90
_cell_angle_gamma 120
_cell_volume 267.253
_exptl_crystal_density_diffrn      2.349
_symmetry_space_group_name_H-M 'P 64 2 2'
loop_
_space_group_symop_operation_xyz
  'x,y,z'
  'x,x-y,2/3-z'
  'x-y,x,2/3+z'
  'y,x,1/3-z'
  '-y,x-y,1/3+z'
  '-x+y,y,-z'
  '-x,-y,z'
  '-x,-x+y,2/3-z'
  '-x+y,-x,2/3+z'
  '-y,-x,1/3-z'
  'y,-x+y,1/3+z'
  'x-y,-y,-z'
loop_
_atom_site_label
_atom_site_fract_x
_atom_site_fract_y
_atom_site_fract_z
_atom_site_U_iso_or_equiv
Si   0.50000   0.00000   0.00000   0.01254
Al   0.50000   0.00000   0.50000   0.01191
Li   0.00000   0.00000   0.00000   0.08992
O   0.21050   0.40460   0.74560   0.03040
