data_global
_chemical_name_mineral 'Tellurite'
loop_
_publ_author_name
'Ito T'
'Sawada H'
_journal_name_full 'Zeitschrift fur Kristallographie'
_journal_volume 102 
_journal_year 1940
_journal_page_first 13
_journal_page_last 25
_publ_section_title
;
 The crystal structure of tellurite (Te O2)
 _cod_database_code 1011183
;
_database_code_amcsd 0018058
_chemical_formula_sum 'Te O2'
_chemical_formula_sum ''
_cell_length_a 5.5
_cell_length_b 11.75
_cell_length_c 5.59
_cell_angle_alpha 90
_cell_angle_beta 90
_cell_angle_gamma 90
_cell_volume 361.254
_exptl_crystal_density_diffrn      5.869
_symmetry_space_group_name_H-M 'P c a b'
loop_
_space_group_symop_operation_xyz
  'x,y,z'
  'x,1/2+y,1/2-z'
  '-x,1/2-y,1/2+z'
  '1/2-x,y,1/2+z'
  '1/2+x,-y,1/2-z'
  '1/2+x,1/2-y,z'
  '1/2-x,1/2+y,-z'
  '-x,-y,-z'
loop_
_atom_site_label
_atom_site_fract_x
_atom_site_fract_y
_atom_site_fract_z
Te1   0.02750   0.11830  -0.11560
O1   0.24000  -0.02200   0.23500
O2   0.16400   0.17400   0.53500
