data_global
_chemical_name_mineral 'Bogdanovite'
loop_
_publ_author_name
'Bayliss P'
_journal_name_full 'The Canadian Mineralogist'
_journal_volume 28 
_journal_year 1990
_journal_page_first 751
_journal_page_last 755
_publ_section_title
;
 Revised unit cell dimensions, space group,
 and chemical formula of some metallic minerals
;
_database_code_amcsd 0005253
_chemical_formula_sum 'Au3 Cu'
_chemical_formula_sum ''
_cell_length_a 4.0876
_cell_length_b 4.0876
_cell_length_c 4.0876
_cell_angle_alpha 90
_cell_angle_beta 90
_cell_angle_gamma 90
_cell_volume 68.298
_exptl_crystal_density_diffrn     15.912
_symmetry_space_group_name_H-M 'P m -3 m'
loop_
_space_group_symop_operation_xyz
  'x,y,z'
  'z,-x,y'
  '-y,z,-x'
  'x,-y,z'
  '-z,x,-y'
  'y,-z,x'
  '-x,y,-z'
  'x,-z,-y'
  '-z,y,x'
  'y,-x,-z'
  '-x,z,y'
  'z,-y,-x'
  '-y,x,z'
  'x,z,y'
  '-z,-y,-x'
  'y,x,z'
  '-x,-z,-y'
  'z,y,x'
  '-y,-x,-z'
  'z,x,-y'
  '-y,-z,x'
  'x,y,-z'
  '-z,-x,y'
  'y,z,-x'
  '-x,-y,z'
  '-z,x,y'
  'y,-z,-x'
  '-x,y,z'
  'z,-x,-y'
  '-y,z,x'
  'x,-y,-z'
  '-x,z,-y'
  'z,-y,x'
  '-y,x,-z'
  'x,-z,y'
  '-z,y,-x'
  'y,-x,z'
  '-x,-z,y'
  'z,y,-x'
  '-y,-x,z'
  'x,z,-y'
  '-z,-y,x'
  'y,x,-z'
  '-z,-x,-y'
  'y,z,x'
  '-x,-y,-z'
  'z,x,y'
  '-y,-z,-x'
loop_
_atom_site_label
_atom_site_fract_x
_atom_site_fract_y
_atom_site_fract_z
Au   0.00000   0.50000   0.50000
Cu   0.00000   0.00000   0.00000
