data_global
_amcsd_formula_title 'Hg N3 O6 Rb'
loop_
_publ_author_name
'Ferrari A'
'Colla C'
_journal_name_full 'Gazzetta Chimica Italiana'
_journal_volume 65 
_journal_year 1935
_journal_page_first 789
_journal_page_last 797
_publ_section_title
;
 Mercurinitriti di metalli monovalenti
 _cod_database_code 1010349
;
_database_code_amcsd 0017275
_chemical_formula_sum 'Rb Hg N3 O6'
_chemical_formula_sum ''
_cell_length_a 5.45
_cell_length_b 5.45
_cell_length_c 5.45
_cell_angle_alpha 90
_cell_angle_beta 90
_cell_angle_gamma 90
_cell_volume 161.879
_exptl_crystal_density_diffrn      4.350
_symmetry_space_group_name_H-M 'P m 3'
loop_
_space_group_symop_operation_xyz
  'x,y,z'
  'z,x,-y'
  'z,-x,y'
  '-z,x,y'
  '-z,-x,-y'
  'y,-z,-x'
  '-y,-z,x'
  '-y,z,-x'
  'y,z,x'
  'x,-y,z'
  '-x,y,z'
  'x,y,-z'
  '-x,-y,-z'
  '-z,-x,y'
  '-z,x,-y'
  'z,-x,-y'
  'z,x,y'
  '-y,z,x'
  'y,z,-x'
  'y,-z,x'
  '-y,-z,-x'
  '-x,y,-z'
  'x,-y,-z'
  '-x,-y,z'
loop_
_atom_site_label
_atom_site_fract_x
_atom_site_fract_y
_atom_site_fract_z
Rb1   0.00000   0.00000   0.00000
Hg1   0.50000   0.50000   0.50000
N1   0.00000   0.50000   0.50000
O1   0.00000   0.24000   0.50000
