data_global
_chemical_name_mineral 'Tungsten'
loop_
_publ_author_name
'Wyckoff R W G'
_journal_name_full 'Crystal Structures'
_journal_volume 1 
_journal_year 1963
_journal_page_first 7
_journal_page_last 83
_publ_section_title
;
 Second edition. Interscience Publishers, New York, New York
 Sample is formed when certain tungstates are electrolyzed
;
_database_code_amcsd 0011261
_chemical_formula_sum 'W'
_chemical_formula_sum ''
_cell_length_a 5.083
_cell_length_b 5.083
_cell_length_c 5.083
_cell_angle_alpha 90
_cell_angle_beta 90
_cell_angle_gamma 90
_cell_volume 131.329
_exptl_crystal_density_diffrn     18.597
_symmetry_space_group_name_H-M 'P m 3 n'
loop_
_space_group_symop_operation_xyz
  'x,y,z'
  'z,-x,y'
  '-y,z,-x'
  'x,-y,z'
  '-z,x,-y'
  'y,-z,x'
  '-x,y,-z'
  '1/2+x,1/2-z,1/2-y'
  '1/2-z,1/2+y,1/2+x'
  '1/2+y,1/2-x,1/2-z'
  '1/2-x,1/2+z,1/2+y'
  '1/2+z,1/2-y,1/2-x'
  '1/2-y,1/2+x,1/2+z'
  '1/2+x,1/2+z,1/2+y'
  '1/2-z,1/2-y,1/2-x'
  '1/2+y,1/2+x,1/2+z'
  '1/2-x,1/2-z,1/2-y'
  '1/2+z,1/2+y,1/2+x'
  '1/2-y,1/2-x,1/2-z'
  'z,x,-y'
  '-y,-z,x'
  'x,y,-z'
  '-z,-x,y'
  'y,z,-x'
  '-x,-y,z'
  '-z,x,y'
  'y,-z,-x'
  '-x,y,z'
  'z,-x,-y'
  '-y,z,x'
  'x,-y,-z'
  '1/2-x,1/2+z,1/2-y'
  '1/2+z,1/2-y,1/2+x'
  '1/2-y,1/2+x,1/2-z'
  '1/2+x,1/2-z,1/2+y'
  '1/2-z,1/2+y,1/2-x'
  '1/2+y,1/2-x,1/2+z'
  '1/2-x,1/2-z,1/2+y'
  '1/2+z,1/2+y,1/2-x'
  '1/2-y,1/2-x,1/2+z'
  '1/2+x,1/2+z,1/2-y'
  '1/2-z,1/2-y,1/2+x'
  '1/2+y,1/2+x,1/2-z'
  '-z,-x,-y'
  'y,z,x'
  '-x,-y,-z'
  'z,x,y'
  '-y,-z,-x'
loop_
_atom_site_label
_atom_site_fract_x
_atom_site_fract_y
_atom_site_fract_z
W1   0.00000   0.00000   0.00000
W2   0.00000   0.50000   0.25000
