data_global
_amcsd_formula_title 'Br2 Pb'
loop_
_publ_author_name
'Nieuwenkamp W'
'Bijvoet J'
_journal_name_full 'Zeitschrift fur Kristallographie'
_journal_volume 84 
_journal_year 1932
_journal_page_first 49
_journal_page_last 61
_publ_section_title
;
 Die Kristallstruktur von Bleibromid Pb Br2
 _cod_database_code 1010619
;
_database_code_amcsd 0017501
_chemical_formula_sum 'Pb Br2'
_chemical_formula_sum ''
_cell_length_a 4.71
_cell_length_b 8.02
_cell_length_c 9.48
_cell_angle_alpha 90
_cell_angle_beta 90
_cell_angle_gamma 90
_cell_volume 358.099
_exptl_crystal_density_diffrn     13.615
_symmetry_space_group_name_H-M 'P m n b'
loop_
_space_group_symop_operation_xyz
  'x,y,z'
  '1/2-x,y,z'
  '1/2+x,-y,-z'
  '1/2+x,1/2-y,1/2+z'
  '1/2-x,1/2+y,1/2-z'
  'x,1/2+y,1/2-z'
  '-x,1/2-y,1/2+z'
  '-x,-y,-z'
loop_
_atom_site_label
_atom_site_fract_x
_atom_site_fract_y
_atom_site_fract_z
Pb1   0.00000   0.01500   0.08700
Br1   0.00000   0.61000   0.07500
Br2   0.00000   0.23000  -0.17000
